## =================================================================================================================================
##  
##                                                    jEdit Velocity Template                              
##                                                                                   
## Template Description                                                         
## --------------------                                                         
## This is a standard jEdit Velocity Template script that generates a standard template header for this file type.
##
## This program is free software; you can redistribute it and/or modify it under the terms of the GNU General Public License
## as published by the Free Software Foundation; either version 2 of the License, or any later version.
##
## This program is distributed in the hope that it will be useful, but WITHOUT ANY WARRANTY; without even the implied warranty of
## MERCHANTABILITY or FITNESS FOR A PARTICULAR PURPOSE.  See the GNU General Public License for more details.
##
## You should have received a copy of the GNU General Public License along with this program; if not, write to the Free Software
## Foundation, Inc., 59 Temple Place - Suite 330, Boston, MA  02111-1307, USA.
## 
## Machine Operating System  : Kubuntu 22.04
## Machine Type              : amd64                               
## File Name                 : ZCORN.vm                                                         
## Author                    : David Baxendale
##                             Equinox International Petroleum Consultants Pte. Ltd
##                             51 Goldhill Plaza, #07-10/11
##                             Singapore, 308900
##                             david.baxendale@eipc.co 
## Version                   : 2022-10
##   
##                             Copyright (C) 2018-2022 Equinox International Petroleum Consultants Pte. Ltd
## 
## =================================================================================================================================
--
--       SPECIFY CORNER-POINT DEPTHS FOR A 3 x 2 x 2 GRID, 
--       WITH CONSTANT SLOPE IN THE X AND Y DIRECTIONS 
--       SUCH THAT ALL CORNER POINTS OF NEIGHBOURING BLOCKS ALIGN

ZCORN
         1450   1500   1500   1550   1550   1600 # top of layer 1   
         1500   1550   1550   1600   1600   1650                     
         1500   1550   1550   1600   1600   1650                     
         1550   1600   1600   1650   1650   1700                     
         1460   1510   1510   1560   1560   1610 # bottom of layer 1                   
         1510   1560   1560   1610   1610   1660                     
         1510   1560   1560   1610   1610   1660                     
         1560   1610   1610   1660   1660   1710                     
         1460   1510   1510   1560   1560   1610 # top of layer 2   
         1510   1560   1560   1610   1610   1660                     
         1510   1560   1560   1610   1610   1660                     
         1560   1610   1610   1660   1660   1710                     
         1470   1520   1520   1570   1570   1620 # bottom of layer 2                   
         1520   1570   1570   1620   1620   1670                     
         1520   1570   1570   1620   1620   1670                     
         1570   1620   1620   1670   1670   1720                     
/                                           
## =================================================================================================================================